<VTKFile type="UnstructuredGrid" version="0.1" byte_order="BigEndian">
  <UnstructuredGrid>
    <Piece NumberOfPoints="409" NumberOfCells="791">
      <PointData Scalars="scalars">
        <DataArray type="Float32" Name="inc" Format="ascii">
          0
          0
          0
          0
          0
          0
          0
          0
          0
          0
          0
          0
          0
          0
          0
          0
          0
          0
          0
          0
          0
          0
          0
          0
          0
          0
          0
          0
          0
          0
          0
          0
          0
          0
          0
          0
          0
          0
          0
          0
          0
          0
          0
          0
          0
          0
          0
          0
          0
          0
          0
          0
          0
          0
          0
          0
          0
          0
          0
          0
          0
          0
          0
          0
          0
          0
          0
          0
          0
          0
          0
          0
          0
          0
          0
          0
          0
          0
          0
          0
          0
          0
          0
          0
          0
          0
          0
          0
          0
          0
          0
          0
          0
          0
          0
          0
          0
          0
          0
          0
          0
          0
          0
          0
          0
          0
          0
          0
          0
          0
          0
          0
          0
          0
          0
          0
          0
          0
          0
          0
          0
          0
          0
          0
          0
          0
          0
          0
          0
          0
          0
          0
          0
          0
          0
          0
          0
          0
          0
          0
          0
          0
          0
          0
          0
          0
          0
          0
          0
          0
          0
          0
          0
          0
          0
          0
          0
          0
          0
          0
          0
          0
          0
          0
          0
          0
          0
          0
          0
          0
          0
          0
          0
          0
          0
          0
          0
          0
          0
          0
          0
          0
          0
          0
          0
          0
          0
          0
          0
          0
          0
          0
          0
          0
          0
          0
          0
          0
          0
          0
          0
          0
          0
          0
          0
          0
          0
          0
          0
          0
          0
          0
          0
          0
          0
          0
          0
          0
          0
          0
          0
          0
          0
          0
          0
          0
          0
          0
          0
          0
          0
          0
          0
          0
          0
          0
          0
          0
          0
          0
          0
          0
          0
          0
          0
          0
          0
          0
          0
          0
          0
          0
          0
          0
          0
          0
          0
          0
          0
          0
          0
          0
          0
          0
          0
          0
          0
          0
          0
          0
          0
          0
          0
          0
          0
          0
          0
          0
          0
          0
          0
          0
          0
          0
          0
          0
          0
          0
          0
          0
          0
          0
          0
          0
          0
          0
          0
          0
          0
          0
          0
          0
          0
          0
          0
          0
          0
          0
          0
          0
          0
          0
          0
          0
          0
          0
          0
          0
          0
          0
          0
          0
          0
          0
          0
          0
          0
          0
          0
          0
          0
          0
          0
          0
          0
          0
          0
          0
          0
          0
          0
          0
          0
          0
          0
          0
          0
          0
          0
          0
          0
          0
          0
          0
          0
          0
          0
          0
          0
          0
          0
          0
          0
          0
          0
          0
          0
          0
          0
          0
          0
          0
          0
          0
          0
          0
          0
          0
          0
          0
          0
          0
          0
          0
          0
          0
          0
          0
          0
          0
          0
          0
          0
          0
          0
          0
          0
          0
          0
          0
          0
          0
          0
          0
          0
          0
          0
          0
          0
        </DataArray>
      </PointData>
      <Points>
        <DataArray type="Float32" NumberOfComponents="3" Format="ascii">
          27.8601 24.0175 35.3008 
          28.1445 25.0198 35.2519 
          28.2104 23.1269 34.9405 
          28.7631 24.0296 34.8486 
          27.9923 26.1818 35.2184 
          28.2034 27.1258 34.8772 
          27.1844 20.8619 34.2325 
          28.2964 22.1022 34.487 
          29.2148 23.0865 34.317 
          29.3539 25.2384 34.5373 
          28.9767 26.248 34.6735 
          29.1486 27.7807 34.0145 
          28.216 20.458 33.3636 
          28.6745 21.3593 33.8057 
          29.5581 22.3213 33.7086 
          29.8329 24.1517 34.092 
          30.3392 25.0132 33.6797 
          29.9851 26.4285 33.8382 
          28.7632 29.017 33.4854 
          28.0127 19.68 32.6127 
          29.3609 20.9133 32.8548 
          30.2395 22.1878 32.9234 
          30.4736 23.6774 33.3451 
          31.1213 24.8377 32.6995 
          30.7361 26.4864 32.9857 
          29.9458 28.0081 33.1588 
          29.3434 29.3737 32.6206 
          28.7642 19.6973 31.9517 
          29.6595 20.4041 31.8984 
          30.5373 21.3576 31.7574 
          31.1465 22.4582 31.7332 
          31.0668 23.5832 32.5238 
          31.5956 26.1276 31.6858 
          31.0306 27.4549 32.0509 
          30.2362 28.9417 31.9545 
          29.2947 30.2288 31.4691 
          28.5671 19.0017 30.7375 
          29.4717 19.6762 30.8699 
          30.626 20.8002 30.7077 
          31.4738 22.1362 30.5532 
          31.6438 23.2552 31.2315 
          31.729 24.6193 31.5685 
          31.765 26.8618 30.8365 
          31.1625 28.2658 30.9578 
          30.457 29.3819 30.8639 
          29.7444 30.3298 30.3376 
          29.0685 19.0752 29.8574 
          30.2211 20.0968 30.0943 
          31.1779 21.1968 29.6302 
          31.8603 22.4428 29.0261 
          32.0682 23.288 29.6295 
          32.1414 24.2097 30.1692 
          32.1169 25.7416 30.3239 
          31.9523 27.0971 29.7783 
          31.552 28.1313 29.7645 
          30.9659 29.1059 29.8599 
          30.2511 30.0666 29.3956 
          28.9784 18.9015 28.7814 
          29.8404 19.5444 28.8395 
          30.7784 20.525 28.8293 
          31.5374 21.7103 28.4029 
          31.7367 22.4113 27.4034 
          32.0976 23.2246 28.1479 
          32.3282 24.6282 28.9371 
          32.2944 25.598 29.2926 
          32.1559 26.6495 28.4748 
          31.8414 27.6329 28.2094 
          31.2679 28.8217 28.7593 
          30.2375 30.1236 28.3896 
          28.0976 18.4536 28.0451 
          30.2579 19.9799 27.9881 
          31.0266 20.9809 27.6588 
          31.0928 21.4332 26.753 
          31.2844 22.3507 26.0098 
          31.8314 23.5112 26.4648 
          32.1849 24.1911 27.4146 
          32.2741 25.3147 27.7157 
          32.1041 26.2412 27.2849 
          31.6546 27.3177 26.6135 
          31.2834 28.4428 27.0775 
          30.9087 29.2576 27.7737 
          30.2546 29.9146 27.2627 
          29.4245 19.3015 27.634 
          29.874 19.8893 26.8396 
          29.7614 20.2206 25.8959 
          30.472 20.6424 26.5638 
          30.6173 21.3331 25.7687 
          31.373 23.2364 25.5212 
          31.4111 24.4459 25.1645 
          31.9006 24.8705 26.1835 
          31.8687 25.9044 26.2492 
          31.2534 26.7028 25.2401 
          30.8544 27.6761 25.1626 
          31.1051 28.161 26.1106 
          30.5145 29.3044 26.4744 
          29.5764 30.2071 26.3111 
          28.4635 18.8297 26.9824 
          29.0973 19.416 26.4148 
          29.0212 20.1094 25.0686 
          29.9034 20.9062 25.1406 
          30.4453 21.8718 24.9333 
          30.792 22.828 24.766 
          30.2284 23.0917 23.9342 
          30.8151 24.169 24.3043 
          31.2154 25.3997 24.8088 
          30.7369 26.21 24.2807 
          30.3761 27.2566 24.24 
          30.1038 28.3789 24.6503 
          30.474 28.7955 25.6123 
          29.8007 29.5303 25.4989 
          28.7469 30.5547 25.7402 
          27.0612 28.9126 34.4679 
          27.8466 28.1527 34.6067 
          27.6945 29.5252 33.727 
          21.4566 27.5536 34.4136 
          20.7803 26.174 34.3879 
          27.8678 30.1771 32.9522 
          26.4655 30.1077 33.657 
          22.7246 29.7918 33.595 
          22.1717 28.8856 34.0698 
          20.4018 27.4355 33.648 
          19.9089 26.0663 33.6346 
          28.3847 30.5591 32.0031 
          26.2813 30.7945 32.8982 
          24.7202 30.9272 32.8653 
          23.5675 30.3447 33.3557 
          21.7578 29.7774 33.0142 
          20.9449 28.4661 33.5223 
          19.5074 27.231 32.7352 
          19.0617 25.8691 32.6079 
          27.9838 31.1417 31.2758 
          27.1605 31.1848 31.8868 
          25.4575 31.4449 32.0191 
          23.4093 31.2148 32.0487 
          22.2844 30.5712 32.4013 
          20.9057 29.6664 32.3441 
          20.186 28.6347 32.6037 
          19.2222 27.8366 31.8649 
          18.5973 26.4989 31.5364 
          28.5937 31.1282 30.4163 
          27.2473 31.6552 30.6576 
          26.152 31.8894 30.7458 
          24.3209 31.6689 31.4662 
          22.8001 31.4406 31.1474 
          21.742 30.782 31.5315 
          20.4013 29.7943 31.4642 
          19.6967 29.1097 31.2703 
          18.6831 27.4714 31.0154 
          18.2227 26.5123 30.4473 
          29.3593 30.8296 29.4769 
          27.2336 31.878 29.6676 
          25.7212 32.2109 29.3799 
          25.0508 32.0449 30.477 
          23.4234 31.8767 30.3466 
          21.8824 31.37 30.0758 
          20.884 30.7316 30.1757 
          19.884 29.8818 30.0223 
          19.0611 28.6572 30.3971 
          18.4111 27.5792 29.8485 
          17.9539 26.0125 29.4599 
          28.9835 31.1398 28.5765 
          28.0665 31.6247 29.043 
          26.4805 32.1387 28.6904 
          25.4563 32.2584 28.4031 
          24.1272 32.198 29.0523 
          22.757 31.8841 28.8273 
          21.4323 31.2791 28.8048 
          20.3269 30.4853 28.6139 
          19.5135 29.6348 29.0712 
          18.8924 28.7682 28.9643 
          18.4619 27.9513 28.5625 
          18.1115 26.9667 28.4716 
          28.4188 31.3771 27.6145 
          27.5586 31.8163 28.0996 
          26.3263 32.0453 27.3617 
          24.6937 32.1934 27.6838 
          23.9587 31.958 26.8926 
          23.1793 31.956 27.7656 
          22.0823 31.4732 27.3015 
          20.8828 30.8421 27.6908 
          19.9012 29.9872 27.6958 
          19.2541 29.2471 27.8861 
          18.7549 28.3398 27.4976 
          18.3216 27.3562 27.5504 
          17.9649 25.9271 27.7082 
          29.5621 30.6695 27.834 
          27.4837 31.6493 26.9614 
          25.8079 31.547 25.5951 
          25.3655 32.0011 26.7282 
          24.6708 31.5483 25.5444 
          23.5738 31.3751 25.5283 
          22.7592 31.4606 26.2942 
          22.1175 30.9402 25.7269 
          20.8794 30.544 26.5962 
          19.9997 29.5361 26.1752 
          19.3091 28.8581 26.5778 
          18.7263 27.7427 26.5236 
          18.2817 26.6714 26.8177 
          18.1332 25.612 26.7315 
          29.0523 30.8401 26.9296 
          28.216 31.1488 26.3766 
          26.7514 31.637 26.2123 
          26.8337 31.1816 25.2687 
          25.9471 30.9582 24.6001 
          24.9645 30.8215 24.325 
          23.8569 30.8405 24.5291 
          22.7736 30.4511 24.466 
          21.6249 30.0446 24.7615 
          20.8821 30.1024 25.6705 
          20.5278 29.3016 25.0127 
          19.8431 28.4822 25.0648 
          19.1762 27.8356 25.5699 
          18.7148 26.9733 25.8331 
          18.4963 25.9317 25.8078 
          21.273 24.8903 34.8356 
          21.5994 23.5344 34.8511 
          20.4394 24.7669 34.2285 
          20.7797 23.4026 34.2728 
          21.7025 22.0638 34.3597 
          19.3985 24.6278 33.1448 
          19.814 23.4283 33.3818 
          20.8266 22.1032 33.7584 
          22.3975 20.6291 33.774 
          23.196 19.7858 33.3168 
          25.4224 20.3143 34.1789 
          26.6913 19.7886 33.4313 
          18.8156 24.5443 32.2705 
          19.0209 23.3529 32.2675 
          19.7493 22.3885 32.8067 
          21.4147 20.8379 33.3145 
          21.7514 19.9837 32.6765 
          24.5449 19.832 33.7076 
          25.4518 19.3512 33.1781 
          26.6617 19.0432 32.4642 
          18.4367 25.1778 31.544 
          18.5279 23.5296 31.3647 
          19.0633 22.173 31.5189 
          20.0664 21.4689 32.5052 
          20.6143 20.4409 32.0686 
          22.5021 19.374 32.4099 
          23.9344 18.9728 32.4997 
          25.0926 18.5521 31.9468 
          27.4462 18.8766 31.7183 
          18.1011 25.4641 30.5406 
          18.1665 24.0318 30.5738 
          18.6736 22.0665 30.2931 
          19.4884 21.0439 30.9827 
          20.3698 20.0063 30.9324 
          21.5401 19.2458 31.2391 
          23.0698 18.5349 31.2024 
          24.079 18.3671 31.3673 
          26.1954 18.2897 31.1299 
          27.5148 18.4446 30.5296 
          17.9237 24.8342 29.7374 
          18.0119 23.668 29.4411 
          18.3166 23.0649 30.3521 
          18.9348 21.264 29.3933 
          19.6872 20.2562 29.4664 
          20.6581 19.4093 29.8545 
          21.9861 18.6028 29.9804 
          23.5222 18.0667 29.9868 
          24.7192 18.0029 30.4519 
          25.8832 17.9796 30.2064 
          28.1933 18.5062 29.3823 
          17.8489 25.3037 28.7611 
          17.933 23.905 28.4517 
          18.3031 22.5469 29.2527 
          18.5956 21.81 28.5044 
          19.2625 20.7135 28.6036 
          20.2673 19.6313 28.2095 
          21.4765 18.7403 28.5182 
          22.8372 18.1326 28.5668 
          23.8073 17.8876 28.5648 
          24.9356 17.8112 29.4124 
          26.1108 17.8508 28.9964 
          26.952 18.0941 29.7307 
          17.9038 24.8695 27.7501 
          18.0756 23.6539 27.4715 
          18.1915 22.8388 28.2674 
          18.9749 21.2453 27.743 
          19.6651 20.415 27.3051 
          20.3603 19.8481 26.8319 
          21.1802 19.166 26.9541 
          21.9026 18.6236 27.4726 
          23.4647 18.1233 27.1511 
          24.4973 17.9133 27.3803 
          25.335 17.8022 28.0569 
          26.5469 17.9495 28.0174 
          27.2697 18.1062 28.7088 
          18.1088 24.536 26.791 
          18.3934 23.1042 26.6745 
          18.8546 22.3254 26.1502 
          18.5897 22.2053 27.1462 
          19.104 21.4591 26.6746 
          19.9408 20.734 25.9123 
          20.7884 20.0181 25.6756 
          21.7364 19.5034 25.3821 
          22.5885 18.6035 26.4176 
          23.8982 18.4431 25.8719 
          24.8755 18.1342 26.4218 
          25.7837 18.3226 25.9902 
          26.159 18.0388 27.0423 
          27.2888 18.2625 27.2413 
          18.4139 24.9203 25.8566 
          18.4395 23.9204 26.0138 
          18.8606 23.1394 25.4848 
          19.4417 23.0726 24.5728 
          19.8648 22.1172 24.577 
          19.4226 21.691 25.6229 
          20.3899 21.2489 24.6488 
          21.2414 20.4977 24.5202 
          22.2217 20.0094 24.2937 
          22.814 19.2426 24.9372 
          23.8462 19.0195 24.8043 
          24.8339 18.8228 24.9241 
          26.226 18.8539 25.0364 
          26.7695 18.3791 26.3025 
          27.7694 18.7591 26.1887 
          27.7826 30.9527 25.4866 
          27.8235 30.3506 24.5856 
          28.7756 29.9472 24.8338 
          26.844 30.5333 24.3008 
          28.2313 29.5893 23.999 
          29.4115 29.2027 24.6196 
          25.9399 30.1699 23.6396 
          27.1124 29.5801 23.4101 
          28.3783 28.7558 23.3987 
          29.2723 28.4817 23.8647 
          24.4307 30.122 23.5639 
          26.138 29.2563 22.8826 
          27.4768 28.7597 22.9373 
          28.5593 27.6536 22.8756 
          29.5523 27.0621 23.334 
          23.4454 29.6649 23.3552 
          25.1177 29.2185 22.7622 
          26.4731 28.3643 22.3903 
          27.6633 27.6332 22.4181 
          28.5352 26.4661 22.4589 
          29.7386 26.0591 23.2054 
          22.0647 29.1905 23.5738 
          24.1541 28.8349 22.5798 
          25.1398 27.9382 22.0368 
          26.0745 27.236 21.8407 
          27.0403 26.8058 21.9223 
          28.965 24.9285 22.5454 
          30.2456 24.9948 23.5736 
          21.6133 28.2865 23.2156 
          23.0305 28.3146 22.5532 
          24.2128 27.2773 21.8405 
          25.1084 26.3896 21.5545 
          26.2728 25.9105 21.5763 
          27.6322 25.1976 21.8857 
          28.3716 24.0906 22.2753 
          29.678 24.1321 23.129 
          20.886 28.7077 24.0614 
          21.973 27.4686 22.6046 
          22.9668 26.8983 22.002 
          23.8956 25.8398 21.5709 
          25.0962 24.7266 21.4304 
          26.4449 24.3 21.5882 
          27.2356 23.5549 21.9053 
          28.0166 22.9077 22.3858 
          29.3246 23.1306 23.0993 
          19.8349 27.5661 24.38 
          20.5572 27.3224 23.5075 
          21.6057 26.4797 22.4876 
          22.5871 25.263 21.8756 
          23.8587 24.214 21.5761 
          24.9604 23.4751 21.5926 
          26.3761 22.6717 21.937 
          27.2985 22.0544 22.438 
          28.7397 22.0978 23.1322 
          29.8715 22.1401 24.0454 
          19.8905 26.5623 23.8658 
          20.6571 26.3769 23.1023 
          21.1016 25.3569 22.6314 
          21.4339 24.1575 22.4757 
          22.62 23.5516 22.0198 
          23.6058 22.5721 22.015 
          24.8649 21.9649 22.1045 
          25.8585 21.1698 22.5804 
          27.3341 21.1252 22.9862 
          28.3776 20.9167 23.6821 
          29.2924 21.0697 24.28 
          19.2092 26.5515 24.7242 
          19.5422 25.4304 24.0287 
          20.2929 25.1316 23.2423 
          20.6804 23.8289 23.0471 
          21.3294 23.006 22.8151 
          22.3619 22.1843 22.5876 
          23.6005 21.0557 22.7921 
          24.6258 20.6217 22.9315 
          25.4727 20.1827 23.2893 
          26.5437 20.3755 23.3014 
          27.4677 20.2747 23.736 
          28.147 19.927 24.5176 
          18.8714 25.3494 24.9668 
          19.0629 24.0343 24.7727 
          19.7052 24.4182 23.861 
          20.0631 23.2307 23.7702 
          20.7206 22.4084 23.5158 
          21.3541 21.4585 23.5869 
          22.2588 20.8679 23.4521 
          23.1756 20.1197 23.6891 
          24.2808 19.8412 23.6683 
          25.2445 19.4839 23.9979 
          26.5494 19.6048 24.0813 
          27.4478 19.2382 24.991 
          28.3929 19.3239 25.6399 
        </DataArray>
      </Points>
      <Cells>
        <DataArray type="Int32" Name="connectivity" Format="ascii">
           3 0 2 
           1 0 3 
           9 3 15 
           7 14 8 
           14 7 13 
           3 2 8 
           3 9 1 
           1 10 4 
           10 1 9 
           4 10 5 
           11 5 10 
           112 113 111 
           12 6 225 
           13 6 12 
           6 13 7 
           7 8 2 
           22 8 14 
           15 3 8 
           9 16 17 
           9 17 10 
           17 16 24 
           11 17 25 
           17 11 10 
           18 112 11 
           27 12 19 
           12 20 13 
           233 225 232 
           20 14 13 
           14 20 21 
           21 22 14 
           8 22 15 
           22 16 15 
           16 22 23 
           16 9 15 
           24 23 32 
           17 24 25 
           5 11 112 
           18 25 26 
           116 18 26 
           37 27 36 
           20 27 28 
           242 19 233 
           29 21 20 
           29 20 28 
           22 21 31 
           30 29 39 
           31 21 30 
           31 23 22 
           32 41 52 
           23 24 16 
           33 32 42 
           24 33 25 
           34 25 33 
           25 34 26 
           26 35 122 
           35 34 44 
           12 27 20 
           36 242 252 
           27 37 28 
           38 28 37 
           29 38 39 
           28 38 29 
           30 39 40 
           21 29 30 
           31 40 41 
           40 31 30 
           41 23 31 
           32 52 42 
           32 33 24 
           43 33 42 
           33 43 34 
           42 54 43 
           44 34 43 
           34 35 26 
           35 130 122 
           37 46 47 
           47 38 37 
           36 263 46 
           46 37 36 
           47 48 38 
           48 60 49 
           39 48 49 
           39 50 40 
           49 62 50 
           50 63 51 
           51 40 50 
           41 51 52 
           41 32 23 
           52 53 42 
           54 42 53 
           64 53 52 
           56 44 55 
           54 67 55 
           56 67 68 
           68 67 80 
           56 149 45 
           263 57 46 
           46 58 47 
           58 57 82 
           59 70 71 
           59 58 70 
           48 59 60 
           48 39 38 
           61 71 72 
           49 61 62 
           74 73 87 
           40 51 41 
           63 50 62 
           64 51 63 
           53 64 65 
           51 64 52 
           53 66 54 
           43 55 44 
           77 66 65 
           139 35 45 
           67 79 80 
           55 43 54 
           44 56 45 
           160 68 185 
           69 82 57 
           58 59 47 
           82 69 96 
           82 97 83 
           71 60 59 
           48 47 59 
           71 61 60 
           86 72 85 
           49 50 39 
           73 74 61 
           61 49 60 
           62 75 63 
           62 74 75 
           76 64 63 
           76 75 89 
           64 76 65 
           65 76 77 
           66 77 78 
           66 53 65 
           66 78 79 
           67 54 66 
           79 67 66 
           67 56 55 
           68 81 185 
           149 56 68 
           57 58 46 
           82 70 58 
           317 302 316 
           70 85 71 
           85 70 83 
           83 84 85 
           71 85 72 
           72 86 73 
           73 61 72 
           101 73 100 
           74 62 61 
           87 103 88 
           74 89 75 
           75 76 63 
           88 74 87 
           76 90 77 
           90 76 89 
           78 90 91 
           93 91 92 
           90 78 77 
           78 93 79 
           91 93 78 
           94 80 79 
           94 93 108 
           93 94 79 
           81 94 95 
           160 199 172 
           97 82 96 
           82 83 70 
           302 317 96 
           98 97 408 
           97 98 84 
           86 84 99 
           84 83 97 
           84 86 85 
           383 99 98 
           102 372 362 
           73 101 87 
           103 101 102 
           89 74 88 
           101 103 87 
           104 88 103 
           89 104 90 
           104 89 88 
           91 104 105 
           105 92 91 
           106 338 332 
           92 106 107 
           92 105 106 
           92 108 93 
           108 92 107 
           80 94 81 
           109 94 108 
           95 320 110 
           94 109 95 
           199 81 95 
           113 112 18 
           11 25 18 
           119 118 126 
           123 116 131 
           117 111 113 
           18 116 113 
           114 120 115 
           127 114 119 
           121 120 128 
           115 121 216 
           116 123 117 
           116 26 122 
           117 113 116 
           125 124 133 
           118 134 126 
           119 126 127 
           114 127 120 
           120 121 115 
           136 120 127 
           128 138 129 
           129 219 121 
           122 131 116 
           131 122 130 
           45 35 44 
           132 123 131 
           123 132 124 
           124 142 133 
           125 133 134 
           127 135 136 
           134 118 125 
           135 126 134 
           145 136 135 
           120 136 128 
           136 137 128 
           129 121 128 
           137 138 128 
           234 129 138 
           140 139 150 
           140 131 130 
           130 35 139 
           141 131 140 
           132 152 142 
           131 141 132 
           142 124 132 
           143 142 153 
           134 143 144 
           144 154 155 
           144 135 134 
           135 144 145 
           136 145 146 
           135 127 126 
           137 136 146 
           157 137 146 
           138 147 148 
           147 158 148 
           138 243 234 
           45 149 139 
           139 140 130 
           161 139 149 
           141 150 151 
           141 151 152 
           150 141 140 
           152 153 142 
           152 132 141 
           153 154 143 
           133 142 143 
           143 134 133 
           155 154 166 
           144 155 145 
           146 156 157 
           156 145 155 
           158 169 170 
           137 157 147 
           158 147 157 
           138 137 147 
           158 159 148 
           243 244 234 
           173 150 161 
           161 149 160 
           81 68 80 
           150 173 162 
           151 162 163 
           174 163 162 
           164 151 163 
           162 151 150 
           152 164 153 
           177 165 164 
           154 165 166 
           154 153 165 
           154 144 143 
           167 166 179 
           167 156 155 
           181 170 169 
           156 146 145 
           168 157 156 
           157 169 158 
           181 169 168 
           159 158 171 
           171 158 170 
           159 253 243 
           173 160 172 
           139 161 150 
           68 160 149 
           173 174 162 
           160 173 161 
           174 175 163 
           151 164 152 
           188 176 175 
           177 175 176 
           175 177 164 
           164 165 153 
           165 178 166 
           165 177 178 
           166 167 155 
           193 178 192 
           179 180 167 
           157 168 169 
           180 168 167 
           168 180 181 
           170 181 182 
           168 156 167 
           170 182 183 
           171 170 183 
           171 197 184 
           264 184 276 
           199 160 185 
           174 201 188 
           81 199 185 
           175 174 188 
           174 173 186 
           201 174 186 
           188 201 187 
           175 164 163 
           176 188 189 
           176 190 191 
           190 176 189 
           191 178 177 
           176 191 177 
           178 191 192 
           178 193 179 
           178 179 166 
           194 193 208 
           180 193 194 
           195 180 194 
           195 182 181 
           180 195 181 
           195 211 196 
           182 195 196 
           196 183 182 
           197 171 183 
           197 198 184 
           198 276 184 
           199 200 172 
           186 318 201 
           320 95 109 
           186 172 200 
           172 186 173 
           318 186 200 
           202 187 201 
           187 189 188 
           204 187 203 
           324 203 321 
           205 189 204 
           189 205 190 
           192 190 206 
           206 190 205 
           206 207 192 
           190 192 191 
           192 208 193 
           193 180 179 
           209 207 354 
           208 209 194 
           210 194 209 
           194 210 195 
           197 196 212 
           211 195 210 
           196 211 212 
           196 197 183 
           212 198 197 
           198 303 289 
           303 198 213 
           214 217 215 
           216 214 115 
           217 214 216 
           218 215 217 
           216 219 220 
           219 216 121 
           216 220 217 
           221 218 217 
           221 220 228 
           229 218 221 
           225 224 232 
           235 227 226 
           228 220 227 
           219 129 226 
           220 221 217 
           227 219 226 
           236 227 235 
           222 229 230 
           218 229 222 
           223 222 230 
           240 223 239 
           231 232 224 
           232 231 240 
           225 19 12 
           19 225 233 
           234 235 226 
           219 227 220 
           129 234 226 
           237 236 246 
           227 236 228 
           237 228 236 
           237 221 228 
           229 238 230 
           238 229 237 
           239 223 230 
           248 230 238 
           240 239 249 
           232 241 233 
           241 240 250 
           251 233 241 
           19 242 27 
           253 244 243 
           255 236 235 
           243 138 148 
           235 234 244 
           236 245 246 
           221 237 229 
           236 255 245 
           246 238 237 
           238 246 247 
           230 248 239 
           247 248 238 
           239 248 249 
           240 249 250 
           223 240 231 
           240 241 232 
           251 261 262 
           252 242 251 
           242 36 27 
           233 251 242 
           159 243 148 
           244 253 254 
           253 159 264 
           255 254 266 
           255 235 244 
           246 256 257 
           266 245 255 
           256 246 245 
           257 247 246 
           248 247 258 
           257 258 247 
           270 258 269 
           248 259 249 
           249 260 250 
           259 260 249 
           260 273 261 
           261 241 250 