<VTKFile type="UnstructuredGrid" version="0.1" byte_order="BigEndian">
  <UnstructuredGrid>
    <Piece NumberOfPoints="696" NumberOfCells="1266">
      <PointData Scalars="scalars">
        <DataArray type="Float32" Name="inc" Format="ascii">
          0
          0
          0
          0
          0
          0
          0
          0
          0
          0
          0
          0
          0
          0
          0
          0
          0
          0
          0
          0
          0
          0
          0
          0
          0
          0
          0
          0
          0
          0
          0
          0
          0
          0
          0
          0
          0
          0
          0
          0
          0
          0
          0
          0
          0
          0
          0
          0
          0
          0
          0
          0
          0
          0
          0
          0
          0
          0
          0
          0
          0
          0
          0
          0
          0
          0
          0
          0
          0
          0
          0
          0
          0
          0
          0
          0
          0
          0
          0
          0
          0
          0
          0
          0
          0
          0
          0
          0
          0
          0
          0
          0
          0
          0
          0
          0
          0
          0
          0
          0
          0
          0
          0
          0
          0
          0
          0
          0
          0
          0
          0
          0
          0
          0
          0
          0
          0
          0
          0
          0
          0
          0
          0
          0
          0
          0
          0
          0
          0
          0
          0
          0
          0
          0
          0
          0
          0
          0
          0
          0
          0
          0
          0
          0
          0
          0
          0
          0
          0
          0
          0
          0
          0
          0
          0
          0
          0
          0
          0
          0
          0
          0
          0
          0
          0
          0
          0
          0
          0
          0
          0
          0
          0
          0
          0
          0
          0
          0
          0
          0
          0
          0
          0
          0
          0
          0
          0
          0
          0
          0
          0
          0
          0
          0
          0
          0
          0
          0
          0
          0
          0
          0
          0
          0
          0
          0
          0
          0
          0
          0
          0
          0
          0
          0
          0
          0
          0
          0
          0
          0
          0
          0
          0
          0
          0
          0
          0
          0
          0
          0
          0
          0
          0
          0
          0
          0
          0
          0
          0
          0
          0
          0
          0
          0
          0
          0
          0
          0
          0
          0
          0
          0
          0
          0
          0
          0
          0
          0
          0
          0
          0
          0
          0
          0
          0
          0
          0
          0
          0
          0
          0
          0
          0
          0
          0
          0
          0
          0
          0
          0
          0
          0
          0
          0
          0
          0
          0
          0
          0
          0
          0
          0
          0
          0
          0
          0
          0
          0
          0
          0
          0
          0
          0
          0
          0
          0
          0
          0
          0
          0
          0
          0
          0
          0
          0
          0
          0
          0
          0
          0
          0
          0
          0
          0
          0
          0
          0
          0
          0
          0
          0
          0
          0
          0
          0
          0
          0
          0
          0
          0
          0
          0
          0
          0
          0
          0
          0
          0
          0
          0
          0
          0
          0
          0
          0
          0
          0
          0
          0
          0
          0
          0
          0
          0
          0
          0
          0
          0
          0
          0
          0
          0
          0
          0
          0
          0
          0
          0
          0
          0
          0
          0
          0
          0
          0
          0
          0
          0
          0
          0
          0
          0
          0
          0
          0
          0
          0
          0
          0
          0
          0
          0
          0
          0
          0
          0
          0
          0
          0
          0
          0
          0
          0
          0
          0
          0
          0
          0
          0
          0
          0
          0
          0
          0
          0
          0
          0
          0
          0
          0
          0
          0
          0
          0
          0
          0
          0
          0
          0
          0
          0
          0
          0
          0
          0
          0
          0
          0
          0
          0
          0
          0
          0
          0
          0
          0
          0
          0
          0
          0
          0
          0
          0
          0
          0
          0
          0
          0
          0
          0
          0
          0
          0
          0
          0
          0
          0
          0
          0
          0
          0
          0
          0
          0
          0
          0
          0
          0
          0
          0
          0
          0
          0
          0
          0
          0
          0
          0
          0
          0
          0
          0
          0
          0
          0
          0
          0
          0
          0
          0
          0
          0
          0
          0
          0
          0
          0
          0
          0
          0
          0
          0
          0
          0
          0
          0
          0
          0
          0
          0
          0
          0
          0
          0
          0
          0
          0
          0
          0
          0
          0
          0
          0
          0
          0
          0
          0
          0
          0
          0
          0
          0
          0
          0
          0
          0
          0
          0
          0
          0
          0
          0
          0
          0
          0
          0
          0
          0
          0
          0
          0
          0
          0
          0
          0
          0
          0
          0
          0
          0
          0
          0
          0
          0
          0
          0
          0
          0
          0
          0
          0
          0
          0
          0
          0
          0
          0
          0
          0
          0
          0
          0
          0
          0
          0
          0
          0
          0
          0
          0
          0
          0
          0
          0
          0
          0
          0
          0
          0
          0
          0
          0
          0
          0
          0
          0
          0
          0
          0
          0
          0
          0
          0
          0
          0
          0
          0
          0
          0
          0
          0
          0
          0
          0
          0
          0
          0
          0
          0
          0
          0
          0
          0
          0
          0
          0
          0
          0
          0
          0
          0
          0
          0
          0
          0
          0
          0
          0
          0
          0
          0
          0
          0
          0
          0
          0
          0
          0
          0
          0
          0
          0
          0
          0
          0
          0
          0
          0
          0
          0
          0
          0
          0
          0
          0
          0
        </DataArray>
      </PointData>
      <Points>
        <DataArray type="Float32" NumberOfComponents="3" Format="ascii">
          0.287623 2.73341 50.5455 
          2.94101 1.90579 50.0953 
          3.98126 2.22865 50.3613 
          6.29594 1.24444 50.5627 
          4.17835 0.91297 50.2102 
          7.8997 1.46252 50.5089 
          10.3087 0.492315 50.6398 
          5.97123 35.4701 50.6877 
          9.12698 34.908 50.7084 
          12.5476 35.7024 50.4549 
          15.8734 1.23862 50.5533 
          13.3579 0.536853 50.5538 
          16.8248 2.59412 50.6084 
          18.297 35.0544 50.5636 
          23.3847 1.6817 50.39 
          24.4104 2.2145 50.1886 
          24.5529 0.801209 50.2666 
          26.5416 34.2465 50.6021 
          24.3432 35.7403 50.4631 
          25.7942 1.55738 50.1165 
          28.9814 32.4355 50.8677 
          28.1731 36.0691 50.2262 
          31.1009 4.70701 50.1934 
          36.4273 1.20371 50.3301 
          35.6008 3.67312 50.7507 
          0.467365 3.80716 50.7135 
          5.01976 3.06696 50.2637 
          5.44559 1.88436 50.4529 
          7.05041 0.228042 50.6391 
          7.72524 3.04943 50.4233 
          9.54143 1.36503 50.4322 
          11.8864 0.280736 50.6437 
          10.7131 34.3755 50.6477 
          11.6711 4.46084 50.6126 
          10.7469 1.39517 50.5187 
          14.6041 0.679725 50.6031 
          17.6566 5.69561 50.3049 
          19.8123 3.40431 50.49 
          21.7835 2.93618 50.6578 
          23.115 2.95446 50.3816 
          23.7692 4.51358 50.4537 
          24.4242 3.25738 50.3915 
          25.8933 2.97334 50.224 
          27.7073 6.18081 50.0754 
          30.6939 34.1265 50.2906 
          27.2276 0.651369 50.3737 
          29.3161 35.0584 50.41 
          31.6819 1.9664 50.001 
          33.5179 5.10526 50.2841 
          34.6579 5.00077 50.5462 
          36.226 4.81331 50.5806 
          2.88404 4.08739 50.5547 
          3.40881 3.11651 50.2239 
          6.52092 2.37121 50.5361 
          8.82402 2.27298 50.4853 
          9.03531 3.93649 50.7025 
          12.81 3.36758 50.4331 
          12.2999 1.81795 50.6499 
          13.6078 1.99318 50.5397 
          13.798 6.17484 50.2101 
          15.1769 2.11406 50.4873 
          18.4678 3.02561 50.5744 
          18.6437 4.41419 50.6957 
          19.767 4.6221 50.5612 
          21.2515 5.29115 50.599 
          22.5346 4.17129 50.3938 
          22.8325 5.8106 50.3828 
          25.4909 4.42226 50.4191 
          27.0095 4.88481 50.2658 
          28.4055 4.78205 50.056 
          27.3515 2.21254 50.1979 
          27.9784 34.3886 50.5702 
          33.1042 2.66779 50.0857 
          29.9232 5.61557 50.0759 
          34.3383 2.53358 50.65 
          34.1636 3.90754 50.4472 
          0.621539 5.43047 50.3388 
          4.33243 3.87333 50.2966 
          9.56899 5.49584 50.6339 
          10.0549 2.61426 50.628 
          10.0785 7.11678 50.5787 
          13.2451 4.70322 50.2131 
          10.4434 4.07575 50.5613 
          14.2773 3.58446 50.4813 
          14.6843 5.02971 50.2702 
          15.5581 3.75839 50.5449 
          16.2457 5.17991 50.2331 
          19.6127 7.42219 50.1966 
          20.6562 6.04874 50.2785 
          24.5564 5.84755 50.3027 
          25.0046 7.21826 50.3119 
          24.4641 8.09773 50.493 
          26.049 5.95744 50.3267 
          27.0356 3.75456 50.2131 
          28.507 1.04037 50.2324 
          29.0313 2.59275 50.0579 
          29.6877 0.00230262 50.1168 
          32.5476 3.77469 50.0511 
          34.0877 6.49269 50.5993 
          33.9049 7.60143 50.444 
          35.5926 6.02295 50.6932 
          1.46608 6.7719 50.3104 
          0.256216 7.07171 50.6539 
          2.09752 5.56234 50.4373 
          7.65787 4.39754 50.5491 
          8.91358 6.89811 50.5253 
          7.87088 7.79659 50.5414 
          12.1549 5.92099 50.5129 
          11.4618 2.77012 50.5418 
          15.4076 7.80294 50.3395 
          16.6574 6.68272 50.085 
          17.2548 4.03488 50.551 
          17.4893 9.49441 50.2353 
          19.0323 5.98249 50.2067 
          22.2214 6.66828 50.2414 
          23.4997 7.03718 50.3588 
          26.4914 9.56465 50.8224 
          26.6793 7.32434 50.215 
          28.3235 7.49793 50.3689 
          31.4289 6.38278 50.2296 
          28.2003 3.67422 49.9014 
          31.5539 3.1847 50.0273 
          29.7622 3.95892 49.8315 
          32.551 5.39582 50.3657 
          35.4002 7.24844 50.6793 
          2.12913 9.53244 50.5353 
          3.59276 5.15652 50.4418 
          4.15955 6.10905 50.6403 
          5.1737 4.79185 50.2373 
          8.15342 5.3752 50.3555 
          6.44558 3.9109 50.2709 
          11.395 7.13777 50.5431 
          14.2547 7.62278 50.5172 
          15.3328 6.46219 50.3285 
          13.4796 10.5085 50.6802 
          15.9867 9.284 50.3516 
          18.0766 6.86372 50.4314 
          12.6299 11.8072 50.7174 
          18.7658 8.76757 50.3342 
          21.203 7.57236 50.345 
          22.7919 7.75211 50.4623 
          25.4652 10.6108 50.7026 
          26.1849 12.0993 51.0612 
          28.1484 9.79425 50.6288 
          27.5839 8.31794 50.6118 
          28.8895 6.31484 50.2503 
          33.0789 6.36655 50.5636 
          32.61 7.62091 50.4442 
          33.3847 8.55622 50.5673 
          33.5331 9.67929 50.8733 
          2.34013 7.98421 50.5683 
          2.92374 6.47011 50.5341 
          6.59774 5.38477 50.0832 
          7.24193 6.69068 50.5187 
          7.12116 10.4663 50.7767 
          10.7231 8.61303 51.0055 
          10.693 5.73645 50.6262 
          12.1379 8.45289 50.9901 
          14.2303 11.9696 50.6368 
          14.9545 10.6195 50.4534 
          16.8253 7.93045 50.237 
          16.5068 10.7545 50.5493 
          19.0809 9.91932 50.4311 
          18.09 7.91802 50.3466 
          21.7788 11.4034 50.336 
          23.2244 9.09786 50.3977 
          25.8752 8.39332 50.5096 
          24.8665 9.25114 50.7745 
          27.0959 11.0015 50.9049 
          28.8003 9.02724 50.5982 
          31.2148 7.8264 50.5649 
          29.709 7.80106 50.3688 
          30.2621 6.61521 50.2573 
          34.8144 8.62693 50.7426 
          2.00983 10.5243 50.5995 
          0.623827 9.85763 50.8179 
          4.92823 8.59459 51.0058 
          6.1925 9.08271 50.7701 
          7.57067 8.81218 50.8039 
          9.15667 8.47677 50.8636 
          13.2423 8.86354 50.8549 
          14.589 9.23597 50.5318 
          12.844 7.20863 50.5787 
          11.2732 9.60275 50.8737 
          16.1232 12.9541 50.7687 
          18.6962 14.1228 50.7648 
          16.9229 12.0675 50.9226 
          20.3052 8.94765 50.1667 
          21.9911 8.93779 50.2123 
          22.1089 13.0449 50.5692 
          24.6812 11.829 50.7951 
          23.044 11.6522 50.4398 
          28.2052 14.0526 51.2426 
          27.8228 12.5177 51.2204 
          28.7262 11.158 50.9581 
          29.5636 10.3279 50.7956 
          30.4141 9.10467 50.4375 
          31.3983 12.0302 51.1255 
          31.949 9.19226 50.4035 
          36.3382 8.54087 50.6956 
          35.7188 9.7305 51.006 
          1.15969 8.41927 50.7377 
          3.96766 7.67282 50.8552 
          6.29479 7.94104 50.8611 
          5.76999 10.6655 50.8974 
          9.67711 10.913 50.9558 
          9.32145 12.6068 50.9209 
          8.44172 11.484 51.0615 
          13.3155 13.3799 50.6524 
          12.1553 10.1575 50.8572 
          17.4374 13.5269 50.718 
          19.28 11.381 50.3269 
          15.3241 11.9365 50.7118 
          20.6055 10.4825 49.9948 
          21.6128 10.027 50.1023 
          21.7638 14.9965 51.0397 
          22.6212 10.1316 50.4663 
          24.9619 13.218 50.8526 
          26.5371 13.6465 51.4151 
          30.42 12.8997 51.2146 
          29.8812 11.7095 51.0255 
          31.0006 10.4974 50.847 
          32.4395 10.6795 50.9755 
          32.6915 12.2184 51.3565 
          34.5661 9.80887 50.9511 
          5.68548 6.43246 50.3921 
          3.5448 9.15509 50.7952 
          5.00136 7.23731 50.9034 
          4.75218 9.97817 50.7978 
          5.24074 13.8741 50.7135 
          10.1103 9.85265 50.8919 
          11.8372 12.5309 50.9068 
          10.2543 12.0677 50.8864 
          11.1487 10.9753 50.8792 
          18.262 12.4901 50.8992 
          14.8489 13.5776 50.677 
          20.0428 13.8348 50.7237 
          20.7042 12.1788 50.2509 
          21.122 13.7266 50.7544 
          23.1019 15.4395 50.9078 
          22.7473 13.9886 50.7728 
          26.1029 15.1357 51.3395 
          23.786 10.575 50.9037 
          29.4029 14.2661 51.3162 
          29.0555 15.2903 51.4343 
          30.4907 14.4484 51.5693 
          31.6923 15.0567 51.5503 
          31.9441 13.6155 51.4639 
          33.7046 11.0782 51.39 
          34.8634 11.0707 51.3625 
          3.23203 10.4827 50.6581 
          36.4558 10.9527 51.1134 
          4.46591 11.4434 50.7802 
          5.44288 12.3004 50.8926 
          6.98544 11.8906 50.8973 
          7.80777 14.2017 50.7725 
          8.68377 10.0603 50.9707 
          9.5273 14.0354 50.7682 
          12.0157 14.1703 50.8107 
          18.8349 15.6642 50.9223 
          17.3195 15.1131 50.7647 
          19.2774 17.1669 50.6637 
          18.0548 11.0789 50.5594 
          20.1064 14.8633 50.9111 
          23.6472 18.2519 50.9965 
          23.8185 14.1152 50.8678 
          25.0067 14.3589 51.1097 
          25.7005 16.4293 51.3124 
          27.0699 19.4068 51.3713 
          27.5541 15.041 51.3239 
          28.8485 12.6937 51.1095 
          33.6372 17.5527 51.2495 
          33.445 13.5679 51.4871 
          34.3697 12.4658 51.6355 
          1.28195 11.2753 50.7515 
          35.792 12.3016 51.2443 
          1.07246 14.0115 51.1094 
          4.17099 12.7985 51.0006 
          2.84633 11.743 50.6928 
          5.71902 17.1147 50.5667 
          6.2419 14.644 50.5793 
          5.87767 16.058 50.5655 
          8.11206 13.1033 50.8941 
          7.46634 15.6059 50.5075 
          16.3057 14.4237 50.759 
          20.3798 15.9413 50.9605 
          19.5193 18.5617 50.6438 
          19.7497 12.8289 50.4679 
          20.8226 17.4323 50.5734 
          24.0515 16.8648 51.1335 
          22.876 16.7182 50.853 
          23.755 13.136 50.4651 
          26.1138 18.0121 51.1936 
          26.3596 20.9249 51.4576 
          28.4407 16.4195 51.3841 
          29.6676 16.8299 51.2263 
          33.3292 16.2943 51.3248 
          35.0836 13.8038 51.3271 
          0.65124 15.3531 51.4491 
          0.38397 12.5409 51.0783 
          1.70397 12.8912 50.888 
          4.70837 14.8499 50.8212 
          4.89724 19.215 50.6847 
          2.6234 13.4276 50.9165 
          6.56151 13.1681 50.8404 
          3.6153 14.2227 51.0004 
          5.74587 18.6318 50.6002 
          10.6993 13.6287 50.9154 
          10.7265 15.2616 50.8629 
          10.0526 16.6973 50.6617 
          17.6429 16.723 50.7914 
          17.9065 18.209 50.6342 
          21.5398 19.5761 50.8028 
          21.8194 16.4933 50.7337 
          21.9918 18.0926 50.6412 
          22.8879 21.9298 51.6708 
          24.7761 17.646 51.1244 
          24.8206 15.3927 50.9538 
          25.9421 19.2978 51.253 
          26.9913 16.19 51.3194 
          26.5894 17.1265 51.2651 
          32.7886 14.9684 51.4282 
          35.6583 15.1677 51.4758 
          35.0374 17.692 51.1498 
          34.0767 14.7383 51.2883 
          1.89002 16.1794 50.9499 
          0.886524 16.9498 50.8373 
          3.24883 17.0734 50.8296 
          3.42679 15.4568 51.006 
          6.55628 17.8783 50.3925 
          3.55857 19.8938 50.6054 
          9.06634 15.3754 50.7171 
          8.41148 16.6751 50.4834 
          9.54961 17.9271 50.5088 
          17.6765 19.8603 50.8326 
          20.5681 18.775 50.5848 
          21.275 20.5945 50.8787 
          21.2168 23.8078 51.2578 
          22.9734 19.0947 50.8877 
          23.8432 19.6608 51.0113 
          27.6543 17.785 51.2936 
          28.5904 19.2385 51.1924 
          30.9502 17.5061 51.2765 
          34.5037 16.0621 51.2765 
          30.4805 16.0871 51.3117 
          0.0202948 13.7749 51.2925 
          36.4531 17.7592 51.2759 
          2.02362 17.66 50.7718 
          1.9654 14.6374 51.2052 
          4.63629 16.396 50.8009 
          1.00584 22.9808 50.8544 
          4.68985 20.7716 50.4418 
          4.75582 17.5469 50.6371 
          7.97088 20.0923 50.3873 
          8.15788 17.7832 50.5725 
          7.25445 16.8288 50.4375 
          8.67361 18.8411 50.7503 
          9.593 19.5842 50.4972 
          17.5076 21.5297 50.8182 
          19.9847 20.0823 50.9392 
          22.8361 20.6063 51.2057 
          25.1306 20.2158 51.0728 
          29.2531 17.7662 51.3296 
          24.9762 19.0476 51.1148 
          27.688 20.2533 51.3451 
          29.8846 18.8534 51.2888 
          32.4329 17.7238 51.1133 
          32.2628 20.0492 51.1794 
          33.5671 20.4896 51.2517 
          34.45 19.0137 51.1695 
          36.0983 16.5624 51.4413 
          2.01431 19.1604 50.439 
          0.670458 21.5772 50.834 
          1.85007 24.2384 50.7854 
          2.59495 20.7272 50.7614 
          4.04015 23.688 50.7329 
          6.90934 21.4464 50.2426 
          7.11699 18.9862 50.5024 
          9.4743 22.2511 50.4074 
          8.6646 24.4985 50.4509 
          10.2843 21.1457 50.5728 
          10.981 22.6505 50.6212 
          16.7329 22.895 50.7494 
          18.3844 23.0132 50.7574 
          20.4469 21.6079 51.2958 
          24.0509 22.6069 51.6393 
          25.2479 21.6196 51.3295 
          26.637 24.131 51.3447 
          25.5498 22.8857 51.3518 
          26.5293 22.4917 51.3401 
          27.7882 24.9929 51.4309 
          31.812 16.3142 51.3681 
          32.7578 19.0121 51.3008 
          33.7359 21.6197 51.0558 
          34.9782 20.4656 51.0358 
          0.745225 18.5987 50.7946 
          0.484781 19.9027 50.6933 
          1.63207 20.3779 50.6539 
          35.3313 23.3687 50.9972 
          3.75458 25.7191 51.0836 
          1.8895 21.6429 50.8427 
          3.51904 18.3956 50.5878 
          5.03174 22.1785 50.4406 
          10.1076 27.8242 50.8067 
          6.2901 20.204 50.5016 
          9.20026 26.7657 50.6603 
          10.1703 24.1613 50.7986 
          17.494 24.3118 50.6438 
          15.2167 25.6957 50.6804 
          21.4189 22.6537 51.1841 
          18.7142 19.3431 50.6838 
          24.2895 23.6523 51.3674 
          22.8603 23.5682 51.3068 
          24.041 21.1505 51.3078 
          25.7079 26.8661 51.3521 
          29.0897 22.4339 51.3983 
          27.8991 21.6261 51.3501 
          31.3502 19.0343 51.3199 
          31.274 21.8396 51.3812 
          32.0729 21.2466 51.2225 
          35.7273 19.1848 51.1235 
          34.3043 24.5699 51.2623 
          33.9071 23.1648 51.0661 
          3.30719 24.5271 50.8832 
          2.68651 23.1177 50.6282 
          7.13188 24.1726 50.4447 
          5.86936 21.2341 50.3791 
          9.17106 25.5447 50.7166 
          9.64732 23.2396 50.5958 
          10.3017 25.6894 50.8746 
          19.0387 24.4536 51.0469 
          11.7935 23.5855 50.6181 
          13.0329 24.769 50.6314 
          21.0299 25.6452 51.2329 
          19.028 20.7945 51.0175 
          21.7521 21.5163 51.3381 
          20.6046 24.598 51.1887 
          28.0587 26.491 51.37 
          22.8707 27.3698 51.316 
          26.5362 25.7227 51.3057 
          27.8144 23.297 51.466 
          28.7403 20.8683 51.3743 
          32.7658 24.1378 51.2851 
          32.45 22.46 51.2894 
          35.0917 22.0166 50.9782 
          36.1238 20.8587 51.0105 
          36.2091 22.4689 50.9655 
          35.917 24.9892 50.8347 
          0.198419 24.0274 50.8708 
          1.79136 28.2016 50.8911 
          5.5857 23.5331 50.5878 
          3.44271 21.5802 50.6944 
          8.84036 20.6665 50.4346 
          8.05027 21.691 50.1288 
          10.8888 29.2957 50.7795 
          11.6951 27.7691 50.7189 
          15.7824 24.2127 50.6507 
          19.0636 22.2377 51.0247 
          19.8463 23.2251 51.2866 
          23.2427 26.1744 51.1046 
          18.3092 25.7197 50.9316 
          21.9113 26.7246 51.38 
          23.7653 24.8376 51.2371 
          25.4151 24.6019 51.1617 
          24.1916 27.4941 51.1783 
          30.0479 21.5051 51.2469 
          29.9532 19.8901 51.4043 
          31.0135 20.4095 51.1163 
          31.8165 23.3828 51.3799 
          33.5201 27.0365 51.4091 
          34.8681 25.9935 51.1895 
          0.828032 25.4258 50.6562 
          3.38859 28.5454 50.6675 
          3.53208 29.5789 50.5225 
          6.19779 25.1398 50.5829 
          4.81294 25.0693 50.6433 
          8.03096 23.1968 50.4121 
          7.58795 25.4963 50.4422 
          7.89749 26.5331 50.6074 
          10.8678 26.5605 50.8214 
          11.5074 25.1981 50.7825 
          14.3055 24.6068 50.4678 
          18.9964 28.8366 50.8029 
          16.7694 25.618 50.7796 
          15.2485 27.1975 50.4975 
          22.1696 25.097 51.4112 
          21.6301 29.3576 51.2214 
          23.1774 29.949 51.1517 
          29.3459 25.558 51.3892 
          29.0455 24.052 51.4452 
          31.0348 27.5759 51.3782 
          32.2152 26.3766 51.2477 
          30.1942 23.035 51.6396 
          30.5839 24.5113 51.7205 
          31.7642 25.046 51.2636 
          33.9096 28.532 51.1025 
          4.70087 31.7144 50.4872 
          2.97066 27.1258 50.9584 
          2.5161 25.4561 50.9887 
          5.15651 26.3539 50.7804 
          4.04364 27.2794 50.6186 
          5.47867 27.8571 50.5167 
          6.4222 26.6857 50.4589 
          6.6665 22.5562 50.452 
          7.04384 28.0144 50.369 
          12.5105 26.3654 50.3901 
          13.8661 26.2452 50.3522 
          15.1843 28.8529 50.1314 
          15.3553 31.0759 50.2096 
          20.4787 28.131 51.0491 
          23.0205 28.5585 51.1556 
          24.9629 26.0176 51.2215 
          24.4142 29.1969 51.1746 
          25.9261 29.8012 51.2155 
          25.6961 28.1294 51.4854 
          28.3714 28.1809 51.3558 
          33.2456 25.6618 51.2768 
          30.7114 26.2015 51.5744 
          35.0935 27.4465 51.0222 
          36.4205 26.5319 50.9636 
          1.47712 26.5183 50.9397 
          2.31506 29.1566 50.6991 
          1.64998 31.5444 50.5306 
          3.72477 31.22 50.4536 
          4.71117 28.6003 50.3311 
          6.24214 30.3157 50.4389 
          4.09669 22.6783 50.7045 
          8.42663 28.0616 50.5645 
          11.0989 30.3121 50.721 
          12.9007 27.6647 50.5122 
          14.404 30.2518 50.2904 
          16.3374 28.5149 50.3965 
          16.0475 30.1576 50.2643 
          13.3672 30.3258 50.2646 
          16.5103 26.8379 50.5343 
          20.8551 26.8526 51.2962 
          20.0943 29.5072 50.6431 
          24.5755 30.6488 50.9548 
          29.7322 28.4893 51.2786 
          30.2572 31.3217 50.8695 
          26.8591 27.3853 51.4077 
          28.4771 29.5197 50.9937 
          32.4531 27.9781 51.2112 
          35.1385 29.0616 51.1861 
          0.954544 28.7744 50.8726 
          34.0091 30.0472 50.9591 
          0.661245 27.5648 50.727 
          4.79265 34.3253 50.6093 
          4.21101 32.7714 50.4406 
          2.59566 32.4201 50.5375 
          7.7766 29.5676 50.298 
          4.99373 30.2214 50.403 
          8.81173 30.7986 50.6078 
          9.8693 30.3743 50.8313 
          13.7301 29.1169 50.3041 
          13.9656 27.7701 50.3588 
          13.7536 31.7076 50.2231 
          16.8544 31.1848 50.5837 
          17.5759 29.6394 50.6814 
          21.5825 28.2274 51.2597 
          17.5625 26.9909 50.7594 
          19.1979 27.1894 51.1502 
          23.3717 31.4098 50.8217 
          26.9119 28.9354 51.2178 
          27.3255 30.418 51.2742 
          28.8988 30.9307 51.1735 
          29.419 27.0544 51.6428 
          30.0159 30.0249 51.0686 
          34.3525 31.5126 50.827 
          32.7967 29.5064 50.9086 
          1.28707 30.0535 50.8884 
          2.34813 30.7576 50.5262 
          0.328602 32.5181 50.2065 
          3.38009 33.6807 50.333 
          6.12379 29.312 50.4808 
          7.4337 30.9797 50.4256 
          8.51983 32.246 50.5732 
          9.22361 29.2777 50.7099 
          11.0337 31.4821 50.806 
          12.2924 29.1857 50.4074 
          12.462 30.7985 50.3653 
          17.1926 32.835 50.5401 
          15.7802 32.0993 50.2302 
          19.1797 30.2467 50.7726 
          19.7737 25.6213 51.2152 
          22.0113 30.832 50.9235 
          20.5594 30.602 50.8893 
          22.2023 32.4872 50.5494 
          25.2759 33.5876 50.451 
          31.6491 31.6574 50.7663 
          31.4547 30.3433 50.7167 
          34.3939 32.9387 50.559 
          31.2384 29.1382 51.0008 
          36.343 29.6275 51.0574 
          35.8865 33.7301 50.3822 
          35.3489 32.3191 50.619 
          1.85541 33.1525 50.526 
          0.0165659 31.1938 50.6427 
          2.11519 34.4825 50.3832 
          5.95284 31.546 50.5975 
          6.47037 34.2305 50.6259 
          7.07306 32.6186 50.6832 
          9.52555 31.875 50.6275 
          12.2022 31.9817 50.5436 
          13.48 33.0685 50.5764 
          17.0157 35.9181 50.4717 
          17.1957 34.233 50.4953 
          18.2532 32.1146 50.503 
          19.8172 32.6681 50.4709 
          17.6984 27.9824 50.8679 
          20.6332 36.4278 50.7176 
          19.5708 31.5383 50.7935 