<VTKFile type="UnstructuredGrid" version="0.1" byte_order="BigEndian">
  <UnstructuredGrid>
    <Piece NumberOfPoints="1250" NumberOfCells="2576">
      <PointData Scalars="scalars">
        <DataArray type="Float32" Name="inc" Format="ascii">
          0
          0
          0
          0
          0
          0
          0
          0
          0
          0
          0
          0
          0
          0
          0
          0
          0
          0
          0
          0
          0
          0
          0
          0
          0
          0
          0
          0
          0
          0
          0
          0
          0
          0
          0
          0
          0
          0
          0
          0
          0
          0
          0
          0
          0
          0
          0
          0
          0
          0
          0
          0
          0
          0
          0
          0
          0
          0
          0
          0
          0
          0
          0
          0
          0
          0
          0
          0
          0
          0
          0
          0
          0
          0
          0
          0
          0
          0
          0
          0
          0
          0
          0
          0
          0
          0
          0
          0
          0
          0
          0
          0
          0
          0
          0
          0
          0
          0
          0
          0
          0
          0
          0
          0
          0
          0
          0
          0
          0
          0
          0
          0
          0
          0
          0
          0
          0
          0
          0
          0
          0
          0
          0
          0
          0
          0
          0
          0
          0
          0
          0
          0
          0
          0
          0
          0
          0
          0
          0
          0
          0
          0
          0
          0
          0
          0
          0
          0
          0
          0
          0
          0
          0
          0
          0
          0
          0
          0
          0
          0
          0
          0
          0
          0
          0
          0
          0
          0
          0
          0
          0
          0
          0
          0
          0
          0
          0
          0
          0
          0
          0
          0
          0
          0
          0
          0
          0
          0
          0
          0
          0
          0
          0
          0
          0
          0
          0
          0
          0
          0
          0
          0
          0
          0
          0
          0
          0
          0
          0
          0
          0
          0
          0
          0
          0
          0
          0
          0
          0
          0
          0
          0
          0
          0
          0
          0
          0
          0
          0
          0
          0
          0
          0
          0
          0
          0
          0
          0
          0
          0
          0
          0
          0
          0
          0
          0
          0
          0
          0
          0
          0
          0
          0
          0
          0
          0
          0
          0
          0
          0
          0
          0
          0
          0
          0
          0
          0
          0
          0
          0
          0
          0
          0
          0
          0
          0
          0
          0
          0
          0
          0
          0
          0
          0
          0
          0
          0
          0
          0
          0
          0
          0
          0
          0
          0
          0
          0
          0
          0
          0
          0
          0
          0
          0
          0
          0
          0
          0
          0
          0
          0
          0
          0
          0
          0
          0
          0
          0
          0
          0
          0
          0
          0
          0
          0
          0
          0
          0
          0
          0
          0
          0
          0
          0
          0
          0
          0
          0
          0
          0
          0
          0
          0
          0
          0
          0
          0
          0
          0
          0
          0
          0
          0
          0
          0
          0
          0
          0
          0
          0
          0
          0
          0
          0
          0
          0
          0
          0
          0
          0
          0
          0
          0
          0
          0
          0
          0
          0
          0
          0
          0
          0
          0
          0
          0
          0
          0
          0
          0
          0
          0
          0
          0
          0
          0
          0
          0
          0
          0
          0
          0
          0
          0
          0
          0
          0
          0
          0
          0
          0
          0
          0
          0
          0
          0
          0
          0
          0
          0
          0
          0
          0
          0
          0
          0
          0
          0
          0
          0
          0
          0
          0
          0
          0
          0
          0
          0
          0
          0
          0
          0
          0
          0
          0
          0
          0
          0
          0
          0
          0
          0
          0
          0
          0
          0
          0
          0
          0
          0
          0
          0
          0
          0
          0
          0
          0
          0
          0
          0
          0
          0
          0
          0
          0
          0
          0
          0
          0
          0
          0
          0
          0
          0
          0
          0
          0
          0
          0
          0
          0
          0
          0
          0
          0
          0
          0
          0
          0
          0
          0
          0
          0
          0
          0
          0
          0
          0
          0
          0
          0
          0
          0
          0
          0
          0
          0
          0
          0
          0
          0
          0
          0
          0
          0
          0
          0
          0
          0
          0
          0
          0
          0
          0
          0
          0
          0
          0
          0
          0
          0
          0
          0
          0
          0
          0
          0
          0
          0
          0
          0
          0
          0
          0
          0
          0
          0
          0
          0
          0
          0
          0
          0
          0
          0
          0
          0
          0
          0
          0
          0
          0
          0
          0
          0
          0
          0
          0
          0
          0
          0
          0
          0
          0
          0
          0
          0
          0
          0
          0
          0
          0
          0
          0
          0
          0
          0
          0
          0
          0
          0
          0
          0
          0
          0
          0
          0
          0
          0
          0
          0
          0
          0
          0
          0
          0
          0
          0
          0
          0
          0
          0
          0
          0
          0
          0
          0
          0
          0
          0
          0
          0
          0
          0
          0
          0
          0
          0
          0
          0
          0
          0
          0
          0
          0
          0
          0
          0
          0
          0
          0
          0
          0
          0
          0
          0
          0
          0
          0
          0
          0
          0
          0
          0
          0
          0
          0
          0
          0
          0
          0
          0
          0
          0
          0
          0
          0
          0
          0
          0
          0
          0
          0
          0
          0
          0
          0
          0
          0
          0
          0
          0
          0
          0
          0
          0
          0
          0
          0
          0
          0
          0
          0
          0
          0
          0
          0
          0
          0
          0
          0
          0
          0
          0
          0
          0
          0
          0
          0
          0
          0
          0
          0
          0
          0
          0
          0
          0
          0
          0
          0
          0
          0
          0
          0
          0
          0
          0
          0
          0
          0
          0
          0
          0
          0
          0
          0
          0
          0
          0
          0
          0
          0
          0
          0
          0
          0
          0
          0
          0
          0
          0
          0
          0
          0
          0
          0
          0
          0
          0
          0
          0
          0
          0
          0
          0
          0
          0
          0
          0
          0
          0
          0
          0
          0
          0
          0
          0
          0
          0
          0
          0
          0
          0
          0
          0
          0
          0
          0
          0
          0
          0
          0
          0
          0
          0
          0
          0
          0
          0
          0
          0
          0
          0
          0
          0
          0
          0
          0
          0
          0
          0
          0
          0
          0
          0
          0
          0
          0
          0
          0
          0
          0
          0
          0
          0
          0
          0
          0
          0
          0
          0
          0
          0
          0
          0
          0
          0
          0
          0
          0
          0
          0
          0
          0
          0
          0
          0
          0
          0
          0
          0
          0
          0
          0
          0
          0
          0
          0
          0
          0
          0
          0
          0
          0
          0
          0
          0
          0
          0
          0
          0
          0
          0
          0
          0
          0
          0
          0
          0
          0
          0
          0
          0
          0
          0
          0
          0
          0
          0
          0
          0
          0
          0
          0
          0
          0
          0
          0
          0
          0
          0
          0
          0
          0
          0
          0
          0
          0
          0
          0
          0
          0
          0
          0
          0
          0
          0
          0
          0
          0
          0
          0
          0
          0
          0
          0
          0
          0
          0
          0
          0
          0
          0
          0
          0
          0
          0
          0
          0
          0
          0
          0
          0
          0
          0
          0
          0
          0
          0
          0
          0
          0
          0
          0
          0
          0
          0
          0
          0
          0
          0
          0
          0
          0
          0
          0
          0
          0
          0
          0
          0
          0
          0
          0
          0
          0
          0
          0
          0
          0
          0
          0
          0
          0
          0
          0
          0
          0
          0
          0
          0
          0
          0
          0
          0
          0
          0
          0
          0
          0
          0
          0
          0
          0
          0
          0
          0
          0
          0
          0
          0
          0
          0
          0
          0
          0
          0
          0
          0
          0
          0
          0
          0
          0
          0
          0
          0
          0
          0
          0
          0
          0
          0
          0
          0
          0
          0
          0
          0
          0
          0
          0
          0
          0
          0
          0
          0
          0
          0
          0
          0
          0
          0
          0
          0
          0
          0
          0
          0
          0
          0
          0
          0
          0
          0
          0
          0
          0
          0
          0
          0
          0
          0
          0
          0
          0
          0
          0
          0
          0
          0
          0
          0
          0
          0
          0
          0
          0
          0
          0
          0
          0
          0
          0
          0
          0
          0
          0
          0
          0
          0
          0
          0
          0
          0
          0
          0
          0
          0
          0
          0
          0
          0
          0
          0
          0
          0
          0
          0
          0
          0
          0
          0
          0
          0
          0
          0
          0
          0
          0
          0
          0
          0
          0
          0
          0
          0
          0
          0
          0
          0
          0
          0
          0
          0
          0
          0
          0
          0
          0
          0
          0
          0
          0
          0
          0
          0
          0
          0
          0
          0
          0
          0
          0
          0
          0
          0
          0
          0
          0
          0
          0
          0
          0
          0
          0
          0
          0
          0
          0
          0
          0
          0
          0
          0
          0
          0
          0
          0
          0
          0
          0
          0
          0
          0
          0
          0
          0
          0
          0
          0
          0
          0
          0
          0
          0
          0
          0
          0
          0
          0
          0
          0
          0
          0
          0
          0
          0
          0
          0
          0
          0
          0
          0
          0
          0
          0
          0
          0
          0
          0
          0
          0
          0
          0
          0
          0
          0
          0
          0
        </DataArray>
      </PointData>
      <Points>
        <DataArray type="Float32" NumberOfComponents="3" Format="ascii">
          40.4788 42.6274 53.2177 
          40.0478 44.6628 47.8104 
          38.1975 46.5895 51.9397 
          41.7224 46.0452 53.6154 
          38.8523 41.8599 50.3977 
          37.6465 47.6468 51.2773 
          40.5322 39.497 49.2987 
          39.7057 47.4871 53.3051 
          37.4179 49.4328 49.3492 
          37.5751 53.7681 47.1844 
          38.2162 45.9477 48.5487 
          44.9405 56.7994 53.9953 
          36.727 52.278 51.6023 
          41.1084 55.3724 54.7736 
          41.7097 50.1404 53.8768 
          41.2585 56.7221 55.1021 
          39.757 52.7621 54.9567 
          39.7272 51.6388 54.6952 
          36.6893 53.3507 51.8063 
          36.8873 55.1076 49.1668 
          37.1803 53.9374 52.5678 
          38.9534 58.8771 53.8279 
          40.1814 60.8995 50.1932 
          37.7272 57.1566 51.9052 
          40.6478 60.6107 52.7381 
          39.3355 40.9017 50.8592 
          44.8246 40.6128 53.8171 
          40.149 40.363 51.9153 
          43.3211 39.0145 53.2777 
          38.6376 47.298 52.5965 
          37.8811 45.5787 50.9855 
          42.9464 38.1996 52.3755 
          39.3599 42.4978 52.6498 
          40.642 40.7438 52.7049 
          39.491 41.4449 51.8875 
          36.7207 52.3645 50.53 
          47.2456 46.3231 51.8143 
          36.7326 51.2747 51.0427 
          42.8419 46.8797 53.4915 
          42.3609 52.2484 53.8325 
          39.1125 54.2738 54.5627 
          42.6188 62.1418 51.7083 
          44.4143 51.5573 49.7906 
          43.7708 52.217 51.884 
          40.0431 57.2739 54.7647 
          38.0941 50.9086 54.1582 
          38.5898 59.2065 50.5294 
          38.4662 55.9713 53.6428 
          39.328 60.0632 50.4743 
          43.8747 61.954 48.0652 
          43.5787 40.3367 46.5442 
          43.1502 37.7035 50.1975 
          46.4864 42.3227 53.0524 
          47.3289 36.8171 50.7419 
          42.7191 37.6732 51.4055 
          42.5401 41.4377 53.6507 
          45.2344 37.5886 51.9476 
          43.0958 52.2279 52.9958 
          39.3361 45.9423 52.9616 
          37.5421 50.5681 53.1944 
          42.4234 39.7479 53.4548 
          37.2217 49.2731 51.1319 
          41.6343 51.6825 54.2284 
          42.3124 48.122 53.2134 
          37.7206 52.5513 53.9262 
          41.4096 54.874 46.186 
          38.6404 49.5121 53.8615 
          40.4623 53.7843 54.8972 
          44.004 53.168 52.1464 
          40.2163 54.8157 54.7434 
          38.4961 58.6009 51.5136 
          41.2951 58.0139 55.424 
          38.0523 57.7453 50.9997 
          37.3035 56.1469 51.7057 
          43.0858 58.3569 54.9421 
          41.7479 40.867 53.3223 
          42.5326 40.899 47.1115 
          42.1371 43.1021 53.8655 
          45.3968 38.6645 53.2326 
          46.4604 43.9231 52.7449 
          41.2981 39.8395 52.4341 
          49.2052 52.5046 51.4472 
          45.5432 43.3651 53.0641 
          43.7571 47.6444 52.5931 
          46.3997 46.828 51.5983 
          39.5246 50.4855 54.4343 
          43.5115 50.329 51.3014 
          47.9107 52.9557 49.4458 
          41.7123 53.0451 54.3366 
          38.4155 48.5272 52.8202 
          42.7674 55.1559 46.5422 
          41.1155 60.3943 47.3001 
          37.2832 52.9826 52.8836 
          47.0532 58.3551 53.5806 
          39.0878 56.6074 54.1511 
          42.1044 60.9157 53.6231 
          38.3036 58.0801 52.8782 
          37.6029 56.6989 50.8512 
          44.7987 63.8751 50.9069 
          40.051 55.9314 54.9242 
          41.4036 39.1698 48.1505 
          40.7831 40.2928 48.1156 
          45.9482 36.9606 49.1724 
          46.6504 39.7402 46.7337 
          49.8816 40.8937 46.4556 
          40.1029 43.7762 53.1007 
          45.5542 39.9337 46.4372 
          48.9599 41.6662 46.6036 
          37.8748 48.5699 51.9705 
          42.4417 38.6967 47.986 
          47.0358 52.4065 51.1088 
          40.497 52.2092 46.5025 
          44.8052 44.6305 48.6408 
          42.9124 49.5332 52.4583 
          42.3382 48.8593 48.8495 
          45.2895 55.3333 52.5371 
          42.7601 50.9869 53.3277 
          43.2243 54.0989 47.0938 
          37.8525 54.6231 53.7797 
          46.2677 55.7928 52.4475 
          38.9715 59.6929 51.4113 
          39.5592 60.2265 52.3257 
          47.406 59.4588 53.7884 
          39.7561 60.5216 49.0341 
          45.6342 64.0646 51.5963 
          46.7317 37.7277 52.722 
          46.836 39.0536 53.4278 
          52.1294 37.8253 52.8862 
          42.8199 37.8262 49.2235 
          44.2397 39.0916 46.8267 
          44.2178 48.2332 51.8618 
          45.0751 49.5244 50.392 
          38.5195 43.5199 51.2235 
          46.5489 42.9078 47.5894 
          45.9942 47.6508 50.9895 
          45.6527 45.8446 52.5789 
          44.2544 50.9861 51.0869 
          43.4587 49.2014 51.1848 
          42.859 53.1134 47.4171 
          46.2378 55.989 48.6289 
          42.1581 56.3242 54.8522 
          39.0015 55.4466 54.3292 
          44.9215 53.5358 51.2705 
          41.4053 60.1218 54.091 
          42.571 57.4996 55.0191 
          39.3588 59.8944 48.2152 
          45.8547 61.3121 54.0596 
          44.2813 60.9956 54.2747 
          43.7014 63.3233 50.1017 
          41.7994 61.466 52.1471 
          40.9911 39.0462 51.5371 
          41.8098 38.013 50.3695 
          47.6338 37.3153 51.8456 
          45.8392 40.1302 53.6692 
          43.3589 42.7668 54.0371 
          43.2816 40.3038 53.7745 
          49.4887 47.5501 52.8584 
          42.4134 47.2252 48.6183 
          47.1862 50.1257 51.8995 
          40.3094 45.3458 53.258 
          39.2638 48.4039 53.4236 
          44.4729 48.9094 51.0342 
          45.7177 52.8605 49.1316 
          41.535 48.1032 48.2184 
          41.6551 54.4145 54.6231 
          40.1142 58.4714 54.8369 
          43.8405 55.5394 53.9469 
          38.8275 53.0774 54.6977 
          41.6812 58.8843 55.0921 
          42.7968 53.5344 54.0322 
          44.6545 55.5661 53.2872 
          53.1765 65.4055 52.538 
          48.3118 61.5873 54.2237 
          40.7141 60.9238 51.7301 
          38.9485 59.4226 52.9068 
          48.2534 38.2185 53.125 
          48.1925 44.5183 50.5062 
          44.4341 43.2996 53.5467 
          45.5532 44.4583 53.029 
          45.6664 44.6717 49.156 
          47.0423 48.0343 50.6364 
          54.2738 46.6147 52.215 
          43.1095 48.538 52.4875 
          42.8391 49.7793 48.7127 
          43.7184 46.9997 49.719 
          54.7412 47.7045 51.0747 
          46.2181 51.6195 51.3532 
          40.436 46.9091 47.8482 
          39.994 50.9898 46.7872 
          43.4262 53.1676 53.1147 
          39.2106 57.5954 54.2525 
          40.3012 49.404 54.2106 
          45.5898 54.7786 51.7002 
          47.1055 56.9361 52.6808 
          46.4257 59.7593 54.0968 
          42.99 60.7685 54.3724 
          44.8268 60.055 54.0716 
          41.3418 61.7052 50.6838 
          49.0979 60.682 54.3484 
          48.4063 63.7862 53.1032 
          46.6344 37.4181 51.7415 
          44.2156 37.5053 50.5759 
          46.3795 41.0199 53.4711 
          49.2032 45.24 50.578 
          51.6776 38.723 53.3624 
          43.9306 41.8529 54.0862 
          39.322 43.2993 48.3231 
          41.226 43.6048 53.5481 
          44.0566 43.8134 47.8138 
          52.1718 46.4531 50.9172 
          51.9727 46.8958 52.8276 
          50.205 52.5195 51.3186 
          48.2122 52.0076 51.3498 
          42.6705 57.2948 46.1735 
          49.5869 52.8063 49.7313 
          45.6983 56.4637 53.3447 
          50.193 56.7378 49.9268 
          45.6415 58.9894 53.9899 
          44.0969 57.8932 54.805 
          47.4804 60.8363 54.1772 
          47.5255 55.9307 51.6912 
          43.4945 62.8949 51.2327 
          50.378 61.0628 54.2227 
          48.9501 64.2247 48.0783 
          43.7754 62.5888 52.445 
          49.9824 36.9383 51.6899 
          53.1785 41.9539 46.3755 
          50.8515 35.8765 49.8361 
          51.4173 43.2365 48.4954 
          41.3878 42.0925 53.3463 
          47.8719 47.3532 52.4078 
          49.8951 41.0062 53.6901 
          46.5462 47.7385 52.2575 
          49.8961 54.8722 51.0923 
          45.3449 54.1899 48.6087 
          45.1791 45.6135 49.4777 
          52.9153 49.0311 50.3519 
          51.0519 52.2799 51.8001 
          49.6352 50.3754 52.2133 
          45.6229 57.898 54.1216 
          43.2123 51.1132 52.3529 
          48.9987 57.7215 52.3295 
          50.8298 58.0846 52.1099 
          47.7078 57.7492 52.9554 
          50.6016 58.8615 53.0787 
          52.2562 65.7961 51.9369 
          43.6898 61.6683 53.6172 
          50.2472 64.9626 52.3517 
          48.8235 65.2511 49.2073 
          45.9899 62.3067 47.3676 
          44.7244 37.7428 48.3686 
          47.3862 36.7602 48.5756 
          56.0345 42.7696 53.6017 
          47.2028 50.3363 49.9689 
          51.4542 42.1436 53.3012 
          40.2504 46.4337 53.1863 
          47.2134 44.5664 49.3114 
          43.3247 43.9182 53.8195 
          46.7114 46.22 50.5883 
          48.3581 49.8426 52.3841 
          48.5293 46.3932 52.435 
          53.0421 56.9741 49.4624 
          50.033 46.074 52.4282 
          51.5635 51.4195 51.829 
          50.8263 46.7753 52.7359 
          48.5165 58.6541 53.1212 
          55.3473 53.5209 50.6682 
          47.2445 64.2881 52.6485 
          51.932 55.6801 50.9917 
          50.3078 65.6798 51.4932 
          51.3927 64.1962 47.8002 
          51.3905 63.5652 53.6922 
          52.4416 64.7945 53.2247 
          45.4046 63.3764 52.7589 
          51.9888 60.6114 53.9859 
          52.0334 36.022 47.8643 
          49.1788 37.586 52.2283 
          46.2575 36.9274 50.1513 
          45.6656 37.3316 50.9117 
          49.4829 39.8302 53.633 
          51.2527 41.1306 46.1677 
          47.8353 45.1768 51.5403 
          45.2611 42.3543 47.0267 
          53.4175 45.8215 52.4515 
          48.9162 44.2348 51.3797 
          50.8865 51.3074 50.4749 
          52.8945 45.5396 51.1023 
          48.738 58.7895 48.0889 
          44.4548 54.3406 52.5877 
          45.6226 55.2125 48.3637 
          44.8965 52.4277 50.9014 
          49.1616 56.1729 50.2944 
          46.3499 57.4001 53.3888 
          43.6477 56.6018 54.9322 
          47.3474 62.1092 54.0566 
          49.853 58.2771 52.4176 
          48.1667 65.1967 50.301 
          49.4281 62.2477 54.0997 
          51.3381 65.9688 51.2083 
          47.6674 63.5811 47.8311 
          53.1546 37.0127 51.9674 
          53.8401 41.8094 53.2693 
          49.3486 38.431 46.3409 
          51.909 36.8059 51.9232 
          45.1949 42.2527 53.5116 
          48.45 48.8091 52.7655 
          50.1114 43.7198 51.7054 
          53.5667 52.8592 51.6039 
          55.4622 47.0283 52.2708 
          50.796 46.4809 50.3132 
          49.7518 51.5155 51.4664 
          51.3339 53.5255 51.6367 
          52.8879 55.4032 50.4665 
          46.7025 53.1938 49.9502 
          52.5701 53.7519 51.927 
          52.2409 53.4391 49.6727 
          47.6722 58.0237 48.4365 
          43.763 54.405 53.5059 
          49.371 59.2519 53.6274 
          50.501 59.9572 54.116 
          56.2596 58.3415 53.737 
          48.2489 62.8524 53.7022 
          49.6704 63.6123 53.5812 
          52.9944 61.4056 53.9787 
          56.0509 61.8391 46.6322 
          55.8176 41.1339 53.1829 
          47.2998 40.4438 53.4326 
          52.2024 36.0925 50.432 
          52.1182 45.9421 52.3772 
          54.8374 43.0103 53.0774 
          53.1889 49.1335 52.718 
          50.5994 48.705 50.0783 
          51.1381 36.907 46.7742 
          54.8347 46.3763 51.4024 
          52.0125 52.0476 50.4708 
          55.0731 43.974 52.6307 
          44.8103 52.68 48.6275 
          52.3845 54.915 51.5762 
          53.012 57.8359 48.4459 
          53.1469 59.7607 53.7281 
          54.7745 52.689 49.8864 
          47.2869 58.7001 47.6533 
          55.8761 54.1492 51.2977 
          51.8119 58.6427 52.832 
          50.0102 57.1143 51.4237 
          49.7579 65.6409 50.516 
          48.4451 59.6347 53.8439 
          55.6207 60.8655 54.0433 
          50.3055 65.2911 48.9342 
          60.8257 61.1293 47.2961 
          55.2913 38.6853 45.9693 
          55.187 41.9259 53.3584 
          53.3987 40.459 53.4022 
          50.8044 44.7299 52.163 
          51.663 38.1634 46.048 
          51.1351 41.025 53.5272 
          49.0574 42.2192 53.216 
          55.929 46.1506 50.6551 
          49.5941 47.9546 50.0077 
          50.2527 43.6364 49.4524 
          52.3799 42.512 53.054 
          52.5886 47.9242 53.0536 
          53.4308 44.656 50.6889 
          51.9032 49.3382 52.8596 
          62.5909 55.7951 53.1851 
          55.408 51.6824 50.2761 
          49.0233 56.8786 51.683 
          53.62 62.3427 53.9672 
          50.0679 58.8203 48.3318 
          53.813 58.8792 53.1057 
          57.6751 63.9441 52.722 
          59.2229 56.8821 53.8399 
          58.2621 62.6917 53.5041 
          49.5157 55.2608 49.5943 
          47.7204 64.9079 51.4349 
          50.0332 41.9158 53.246 
          54.0847 39.4769 52.9087 
          50.7335 40.0732 53.5991 
          52.7814 43.4373 52.6875 
          53.6177 42.7478 47.7441 
          49.1789 42.9229 47.6407 
          50.7722 41.9334 46.539 
          53.1695 36.3455 47.3897 
          55.4425 44.2067 49.5679 
          57.6577 51.8114 51.6873 
          54.4243 48.6428 50.9063 
          53.5263 54.4527 51.0205 
          53.8952 45.2732 51.3916 
          56.805 49.6906 50.0552 
          54.5274 55.3569 49.0957 
          55.214 58.2453 53.4059 
          52.0352 55.0779 49.8743 
          53.8285 57.1336 52.2915 
          52.456 56.6567 50.2699 
          48.0422 57.0474 52.2187 
          51.2743 56.9266 50.9607 
          56.2545 63.891 53.0997 
          53.9219 65.9215 51.9446 
          54.1186 64.7329 48.4666 
          49.0622 65.3932 51.4514 
          51.1962 37.3487 52.7141 
          49.0319 38.8257 53.3474 
          50.8667 36.5445 51.2716 
          54.5665 38.4747 52.627 
          53.1163 43.7476 49.8803 
          56.8297 41.7934 46.1032 
          50.0834 42.8481 52.6756 
          52.5805 44.3575 52.1769 
          49.0349 43.2848 52.6121 
          54.6539 47.6756 52.3723 
          59.964 50.4661 52.3899 
          54.6051 54.9401 51.2131 
          56.5056 46.2061 53.1211 
          57.6075 45.7717 47.9833 
          55.9151 56.0324 47.2568 
          54.6617 57.4158 52.8516 
          60.673 54.1305 53.3532 
          59.8044 55.1021 53.2646 
          57.12 56.443 53.3373 
          55.4328 56.602 52.8263 
          53.4909 64.6335 53.4183 